;;
;; Generated by CHARMM-GUI FF-Converter
;;
;; Correspondance:
;; jul316@lehigh.edu or wonpil@lehigh.edu
;;
;; GROMACS topology file for LIG
;;


[ moleculetype ]
; name	nrexcl
LIG	     3

[ atoms ]
; nr	type	resnr	residu	atom	cgnr	charge	mass
     1      OG311      1      LIG     O1      1    -0.645000    15.9994   ; qtot -0.645
     2      CG311      1      LIG     C1      2     0.079000    12.0110   ; qtot -0.566
     3      CG331      1      LIG     C2      3    -0.267000    12.0110   ; qtot -0.833
     4      CG321      1      LIG     C3      4    -0.161000    12.0110   ; qtot -0.994
     5      CG2O2      1      LIG     C4      5     0.910000    12.0110   ; qtot -0.084
     6      OG2D1      1      LIG     O2      6    -0.640000    15.9994   ; qtot -0.724
     7      OG302      1      LIG     O3      7    -0.487000    15.9994   ; qtot -1.211
     8      CG311      1      LIG     C5      8     0.163000    12.0110   ; qtot -1.048
     9      CG331      1      LIG     C6      9    -0.267000    12.0110   ; qtot -1.315
    10      CG321      1      LIG     C7     10    -0.240000    12.0110   ; qtot -1.555
    11      CG2O2      1      LIG     C8     11     0.931000    12.0110   ; qtot -0.624
    12      OG2D1      1      LIG     O4     12    -0.640000    15.9994   ; qtot -1.264
    13      OG302      1      LIG     O5     13    -0.487000    15.9994   ; qtot -1.751
    14      CG311      1      LIG     C9     14     0.163000    12.0110   ; qtot -1.588
    15      CG331      1      LIG    C10     15    -0.267000    12.0110   ; qtot -1.855
    16      CG321      1      LIG    C11     16    -0.240000    12.0110   ; qtot -2.095
    17      CG2O2      1      LIG    C12     17     0.931000    12.0110   ; qtot -1.164
    18      OG2D1      1      LIG     O6     18    -0.640000    15.9994   ; qtot -1.804
    19      OG302      1      LIG     O7     19    -0.487000    15.9994   ; qtot -2.291
    20      CG311      1      LIG    C13     20     0.163000    12.0110   ; qtot -2.128
    21      CG331      1      LIG    C14     21    -0.267000    12.0110   ; qtot -2.395
    22      CG321      1      LIG    C15     22    -0.198000    12.0110   ; qtot -2.593
    23      CG2O2      1      LIG    C16     23     0.763000    12.0110   ; qtot -1.830
    24      OG2D1      1      LIG     O8     24    -0.576000    15.9994   ; qtot -2.406
    25      OG311      1      LIG     O9     25    -0.600000    15.9994   ; qtot -3.006
    26       HGP1      1      LIG     H1     26     0.417000     1.0080   ; qtot -2.589
    27       HGA1      1      LIG     H2     27     0.090000     1.0080   ; qtot -2.499
    28       HGA3      1      LIG     H3     28     0.090000     1.0080   ; qtot -2.409
    29       HGA3      1      LIG     H4     29     0.090000     1.0080   ; qtot -2.319
    30       HGA3      1      LIG     H5     30     0.090000     1.0080   ; qtot -2.229
    31       HGA2      1      LIG     H6     31     0.090000     1.0080   ; qtot -2.139
    32       HGA2      1      LIG     H7     32     0.090000     1.0080   ; qtot -2.049
    33       HGA1      1      LIG     H8     33     0.090000     1.0080   ; qtot -1.959
    34       HGA3      1      LIG     H9     34     0.090000     1.0080   ; qtot -1.869
    35       HGA3      1      LIG    H10     35     0.090000     1.0080   ; qtot -1.779
    36       HGA3      1      LIG    H11     36     0.090000     1.0080   ; qtot -1.689
    37       HGA2      1      LIG    H12     37     0.090000     1.0080   ; qtot -1.599
    38       HGA2      1      LIG    H13     38     0.090000     1.0080   ; qtot -1.509
    39       HGA1      1      LIG    H14     39     0.090000     1.0080   ; qtot -1.419
    40       HGA3      1      LIG    H15     40     0.090000     1.0080   ; qtot -1.329
    41       HGA3      1      LIG    H16     41     0.090000     1.0080   ; qtot -1.239
    42       HGA3      1      LIG    H17     42     0.090000     1.0080   ; qtot -1.149
    43       HGA2      1      LIG    H18     43     0.090000     1.0080   ; qtot -1.059
    44       HGA2      1      LIG    H19     44     0.090000     1.0080   ; qtot -0.969
    45       HGA1      1      LIG    H20     45     0.090000     1.0080   ; qtot -0.879
    46       HGA3      1      LIG    H21     46     0.090000     1.0080   ; qtot -0.789
    47       HGA3      1      LIG    H22     47     0.090000     1.0080   ; qtot -0.699
    48       HGA3      1      LIG    H23     48     0.090000     1.0080   ; qtot -0.609
    49       HGA2      1      LIG    H24     49     0.090000     1.0080   ; qtot -0.519
    50       HGA2      1      LIG    H25     50     0.090000     1.0080   ; qtot -0.429
    51       HGP1      1      LIG    H26     51     0.429000     1.0080   ; qtot -0.000

[ bonds ]
; ai	aj	funct	b0	Kb
    2     1     1
    1    26     1
    2     3     1
    2     4     1
    2    27     1
    3    28     1
    3    29     1
    3    30     1
    4     5     1
    4    31     1
    4    32     1
    5     6     1
    5     7     1
    7     8     1
    8     9     1
    8    10     1
    8    33     1
    9    34     1
    9    35     1
    9    36     1
   10    11     1
   10    37     1
   10    38     1
   11    12     1
   11    13     1
   13    14     1
   14    15     1
   14    16     1
   14    39     1
   15    40     1
   15    41     1
   15    42     1
   16    17     1
   16    43     1
   16    44     1
   17    18     1
   17    19     1
   19    20     1
   20    21     1
   20    22     1
   20    45     1
   21    46     1
   21    47     1
   21    48     1
   22    23     1
   22    49     1
   22    50     1
   23    24     1
   23    25     1
   25    51     1

[ pairs ]
; ai	aj	funct	c6	c12 or
; ai	aj	funct	fudgeQQ	q1	q2	c6	c12
    1     5     1
    1    28     1
    1    29     1
    1    30     1
    1    31     1
    1    32     1
    2     6     1
    2     7     1
    3     5     1
    3    26     1
    3    31     1
    3    32     1
    4     8     1
    4    26     1
    4    28     1
    4    29     1
    4    30     1
    5     9     1
    5    10     1
    5    27     1
    5    33     1
    6     8     1
    6    31     1
    6    32     1
    7    11     1
    7    31     1
    7    32     1
    7    34     1
    7    35     1
    7    36     1
    7    37     1
    7    38     1
    8    12     1
    8    13     1
    9    11     1
    9    37     1
    9    38     1
   10    14     1
   10    34     1
   10    35     1
   10    36     1
   11    15     1
   11    16     1
   11    33     1
   11    39     1
   12    14     1
   12    37     1
   12    38     1
   13    17     1
   13    37     1
   13    38     1
   13    40     1
   13    41     1
   13    42     1
   13    43     1
   13    44     1
   14    18     1
   14    19     1
   15    17     1
   15    43     1
   15    44     1
   16    20     1
   16    40     1
   16    41     1
   16    42     1
   17    21     1
   17    22     1
   17    39     1
   17    45     1
   18    20     1
   18    43     1
   18    44     1
   19    23     1
   19    43     1
   19    44     1
   19    46     1
   19    47     1
   19    48     1
   19    49     1
   19    50     1
   20    24     1
   20    25     1
   21    23     1
   21    49     1
   21    50     1
   22    46     1
   22    47     1
   22    48     1
   22    51     1
   23    45     1
   24    49     1
   24    50     1
   24    51     1
   25    49     1
   25    50     1
   26    27     1
   27    28     1
   27    29     1
   27    30     1
   27    31     1
   27    32     1
   33    34     1
   33    35     1
   33    36     1
   33    37     1
   33    38     1
   39    40     1
   39    41     1
   39    42     1
   39    43     1
   39    44     1
   45    46     1
   45    47     1
   45    48     1
   45    49     1
   45    50     1

[ angles ] 
; ai	aj	ak	funct	th0	cth	S0	Kub
    2     1    26     5
    1     2     3     5
    1     2     4     5
    1     2    27     5
    3     2     4     5
    3     2    27     5
    4     2    27     5
    2     3    28     5
    2     3    29     5
    2     3    30     5
   28     3    29     5
   28     3    30     5
   29     3    30     5
    2     4     5     5
    2     4    31     5
    2     4    32     5
    5     4    31     5
    5     4    32     5
   31     4    32     5
    4     5     6     5
    4     5     7     5
    6     5     7     5
    5     7     8     5
    7     8     9     5
    7     8    10     5
    7     8    33     5
    9     8    10     5
    9     8    33     5
   10     8    33     5
    8     9    34     5
    8     9    35     5
    8     9    36     5
   34     9    35     5
   34     9    36     5
   35     9    36     5
    8    10    11     5
    8    10    37     5
    8    10    38     5
   11    10    37     5
   11    10    38     5
   37    10    38     5
   10    11    12     5
   10    11    13     5
   12    11    13     5
   11    13    14     5
   13    14    15     5
   13    14    16     5
   13    14    39     5
   15    14    16     5
   15    14    39     5
   16    14    39     5
   14    15    40     5
   14    15    41     5
   14    15    42     5
   40    15    41     5
   40    15    42     5
   41    15    42     5
   14    16    17     5
   14    16    43     5
   14    16    44     5
   17    16    43     5
   17    16    44     5
   43    16    44     5
   16    17    18     5
   16    17    19     5
   18    17    19     5
   17    19    20     5
   19    20    21     5
   19    20    22     5
   19    20    45     5
   21    20    22     5
   21    20    45     5
   22    20    45     5
   20    21    46     5
   20    21    47     5
   20    21    48     5
   46    21    47     5
   46    21    48     5
   47    21    48     5
   20    22    23     5
   20    22    49     5
   20    22    50     5
   23    22    49     5
   23    22    50     5
   49    22    50     5
   22    23    24     5
   22    23    25     5
   24    23    25     5
   23    25    51     5

[ dihedrals ]
; ai	aj	ak	al	funct	phi0	cp	mult
   26     1     2    27     9
    3     2     1    26     9
    4     2     1    26     9
    1     2     3    28     9
    1     2     3    29     9
    1     2     3    30     9
    4     2     3    28     9
    4     2     3    29     9
    4     2     3    30     9
   27     2     3    28     9
   27     2     3    29     9
   27     2     3    30     9
    1     2     4     5     9
    1     2     4    31     9
    1     2     4    32     9
    3     2     4     5     9
    3     2     4    31     9
    3     2     4    32     9
   27     2     4    31     9
   27     2     4    32     9
    5     4     2    27     9
    2     4     5     6     9
    2     4     5     7     9
    6     5     4    31     9
    6     5     4    32     9
    7     5     4    31     9
    7     5     4    32     9
    4     5     7     8     9
    6     5     7     8     9
    5     7     8     9     9
    5     7     8    10     9
    5     7     8    33     9
    7     8     9    34     9
    7     8     9    35     9
    7     8     9    36     9
   10     8     9    34     9
   10     8     9    35     9
   10     8     9    36     9
   33     8     9    34     9
   33     8     9    35     9
   33     8     9    36     9
    7     8    10    11     9
    7     8    10    37     9
    7     8    10    38     9
    9     8    10    11     9
    9     8    10    37     9
    9     8    10    38     9
   33     8    10    37     9
   33     8    10    38     9
   11    10     8    33     9
    8    10    11    12     9
    8    10    11    13     9
   12    11    10    37     9
   12    11    10    38     9
   13    11    10    37     9
   13    11    10    38     9
   10    11    13    14     9
   12    11    13    14     9
   11    13    14    15     9
   11    13    14    16     9
   11    13    14    39     9
   13    14    15    40     9
   13    14    15    41     9
   13    14    15    42     9
   16    14    15    40     9
   16    14    15    41     9
   16    14    15    42     9
   39    14    15    40     9
   39    14    15    41     9
   39    14    15    42     9
   13    14    16    17     9
   13    14    16    43     9
   13    14    16    44     9
   15    14    16    17     9
   15    14    16    43     9
   15    14    16    44     9
   39    14    16    43     9
   39    14    16    44     9
   17    16    14    39     9
   14    16    17    18     9
   14    16    17    19     9
   18    17    16    43     9
   18    17    16    44     9
   19    17    16    43     9
   19    17    16    44     9
   16    17    19    20     9
   18    17    19    20     9
   17    19    20    21     9
   17    19    20    22     9
   17    19    20    45     9
   19    20    21    46     9
   19    20    21    47     9
   19    20    21    48     9
   22    20    21    46     9
   22    20    21    47     9
   22    20    21    48     9
   45    20    21    46     9
   45    20    21    47     9
   45    20    21    48     9
   19    20    22    23     9
   19    20    22    49     9
   19    20    22    50     9
   21    20    22    23     9
   21    20    22    49     9
   21    20    22    50     9
   45    20    22    49     9
   45    20    22    50     9
   23    22    20    45     9
   20    22    23    24     9
   20    22    23    25     9
   24    23    22    49     9
   24    23    22    50     9
   25    23    22    49     9
   25    23    22    50     9
   22    23    25    51     9
   24    23    25    51     9

[ dihedrals ]
; ai	aj	ak	al	funct	q0	cq
    5     4     6     7     2
   11    10    12    13     2
   17    16    18    19     2
   23    22    24    25     2

#ifdef POSRES
[ position_restraints ]
    1     1    POSRES_FC_BB    POSRES_FC_BB    POSRES_FC_BB   
    2     1    POSRES_FC_BB    POSRES_FC_BB    POSRES_FC_BB   
    3     1    POSRES_FC_BB    POSRES_FC_BB    POSRES_FC_BB   
    4     1    POSRES_FC_BB    POSRES_FC_BB    POSRES_FC_BB   
    5     1    POSRES_FC_BB    POSRES_FC_BB    POSRES_FC_BB   
    6     1    POSRES_FC_BB    POSRES_FC_BB    POSRES_FC_BB   
    7     1    POSRES_FC_BB    POSRES_FC_BB    POSRES_FC_BB   
    8     1    POSRES_FC_BB    POSRES_FC_BB    POSRES_FC_BB   
    9     1    POSRES_FC_BB    POSRES_FC_BB    POSRES_FC_BB   
   10     1    POSRES_FC_BB    POSRES_FC_BB    POSRES_FC_BB   
   11     1    POSRES_FC_BB    POSRES_FC_BB    POSRES_FC_BB   
   12     1    POSRES_FC_BB    POSRES_FC_BB    POSRES_FC_BB   
   13     1    POSRES_FC_BB    POSRES_FC_BB    POSRES_FC_BB   
   14     1    POSRES_FC_BB    POSRES_FC_BB    POSRES_FC_BB   
   15     1    POSRES_FC_BB    POSRES_FC_BB    POSRES_FC_BB   
   16     1    POSRES_FC_BB    POSRES_FC_BB    POSRES_FC_BB   
   17     1    POSRES_FC_BB    POSRES_FC_BB    POSRES_FC_BB   
   18     1    POSRES_FC_BB    POSRES_FC_BB    POSRES_FC_BB   
   19     1    POSRES_FC_BB    POSRES_FC_BB    POSRES_FC_BB   
   20     1    POSRES_FC_BB    POSRES_FC_BB    POSRES_FC_BB   
   21     1    POSRES_FC_BB    POSRES_FC_BB    POSRES_FC_BB   
   22     1    POSRES_FC_BB    POSRES_FC_BB    POSRES_FC_BB   
   23     1    POSRES_FC_BB    POSRES_FC_BB    POSRES_FC_BB   
   24     1    POSRES_FC_BB    POSRES_FC_BB    POSRES_FC_BB   
   25     1    POSRES_FC_BB    POSRES_FC_BB    POSRES_FC_BB   
#endif
